<?xml version="1.0" encoding="UTF-8"?>

<!-- generated on 12/04/19 17:26:04 by Eclipse SUMO Version 1.3.1
<configuration xmlns:xsi="http://www.w3.org/2001/XMLSchema-instance" xsi:noNamespaceSchemaLocation="http://sumo.dlr.de/xsd/sumoConfiguration.xsd">

    <input>
        <net-file value="data/cross.net.xml"/>
        <route-files value="data/cross_test_1.rou.xml"/>
        <additional-files value="data/cross_test_1.add.xml"/>
    </input>

    <time>
        <begin value="0"/>
    </time>

    <report>
        <verbose value="false"/>
        <no-step-log value="true"/>
    </report>

    <traci_server>
        <remote-port value="54972"/>
    </traci_server>

</configuration>
-->

<detector xmlns:xsi="http://www.w3.org/2001/XMLSchema-instance" xsi:noNamespaceSchemaLocation="http://sumo.dlr.de/xsd/det_e2_file.xsd">
   <interval begin="0.00" end="151.00" id="detNorthIn" sampledSeconds="26.08" nVehEntered="4" nVehLeft="4" nVehSeen="4" meanSpeed="1.84" meanTimeLoss="5.63" meanOccupancy="9.22" maxOccupancy="71.43" meanMaxJamLengthInVehicles="0.08" meanMaxJamLengthInMeters="0.37" maxJamLengthInVehicles="1" maxJamLengthInMeters="5.00" jamLengthInVehiclesSum="12" jamLengthInMetersSum="56.51" meanHaltingDuration="5.00" maxHaltingDuration="7.00" haltingDurationSum="15.00" meanIntervalHaltingDuration="5.00" maxIntervalHaltingDuration="7.00" intervalHaltingDurationSum="15.00" startedHalts="3.00" meanVehicleNumber="0.20" maxVehicleNumber="2" />
   <interval begin="0.00" end="151.00" id="detSouthIn" sampledSeconds="0.70" nVehEntered="1" nVehLeft="0" nVehSeen="1" meanSpeed="6.23" meanTimeLoss="0.37" meanOccupancy="0.41" maxOccupancy="62.26" meanMaxJamLengthInVehicles="0.00" meanMaxJamLengthInMeters="0.00" maxJamLengthInVehicles="0" maxJamLengthInMeters="0.00" jamLengthInVehiclesSum="0" jamLengthInMetersSum="0.00" meanHaltingDuration="0.00" maxHaltingDuration="0.00" haltingDurationSum="0.00" meanIntervalHaltingDuration="0.00" maxIntervalHaltingDuration="0.00" intervalHaltingDurationSum="0.00" startedHalts="0.00" meanVehicleNumber="0.01" maxVehicleNumber="1" />
   <interval begin="0.00" end="151.00" id="detEastIn" sampledSeconds="15.26" nVehEntered="3" nVehLeft="3" nVehSeen="3" meanSpeed="2.36" meanTimeLoss="4.25" meanOccupancy="5.35" maxOccupancy="71.43" meanMaxJamLengthInVehicles="0.05" meanMaxJamLengthInMeters="0.18" maxJamLengthInVehicles="1" maxJamLengthInMeters="5.00" jamLengthInVehiclesSum="7" jamLengthInMetersSum="27.90" meanHaltingDuration="4.50" maxHaltingDuration="5.00" haltingDurationSum="9.00" meanIntervalHaltingDuration="4.50" maxIntervalHaltingDuration="5.00" intervalHaltingDurationSum="9.00" startedHalts="2.00" meanVehicleNumber="0.13" maxVehicleNumber="1" />
   <interval begin="0.00" end="151.00" id="detWestIn" sampledSeconds="10.91" nVehEntered="1" nVehLeft="1" nVehSeen="1" meanSpeed="1.10" meanTimeLoss="9.94" meanOccupancy="4.37" maxOccupancy="71.43" meanMaxJamLengthInVehicles="0.05" meanMaxJamLengthInMeters="0.22" maxJamLengthInVehicles="1" maxJamLengthInMeters="5.00" jamLengthInVehiclesSum="7" jamLengthInMetersSum="33.06" meanHaltingDuration="8.00" maxHaltingDuration="8.00" haltingDurationSum="8.00" meanIntervalHaltingDuration="8.00" maxIntervalHaltingDuration="8.00" intervalHaltingDurationSum="8.00" startedHalts="1.00" meanVehicleNumber="0.08" maxVehicleNumber="1" />
</detector>
