<?xml version="1.0" encoding="UTF-8"?>

<!-- generated on 12/02/19 17:00:17 by Eclipse SUMO Version 1.3.1
<configuration xmlns:xsi="http://www.w3.org/2001/XMLSchema-instance" xsi:noNamespaceSchemaLocation="http://sumo.dlr.de/xsd/sumoConfiguration.xsd">

    <input>
        <net-file value="data/cross.net.xml"/>
        <route-files value="data/cross_eval_0.rou.xml"/>
        <additional-files value="data/cross_eval_0.add.xml"/>
    </input>

    <time>
        <begin value="0"/>
    </time>

    <report>
        <verbose value="false"/>
        <no-step-log value="true"/>
    </report>

    <traci_server>
        <remote-port value="63454"/>
    </traci_server>

</configuration>
-->

<detector xmlns:xsi="http://www.w3.org/2001/XMLSchema-instance" xsi:noNamespaceSchemaLocation="http://sumo.dlr.de/xsd/det_e2_file.xsd">
   <interval begin="0.00" end="251.00" id="detNorthIn" sampledSeconds="11.37" nVehEntered="2" nVehLeft="2" nVehSeen="2" meanSpeed="2.11" meanTimeLoss="4.80" meanOccupancy="2.56" maxOccupancy="71.43" meanMaxJamLengthInVehicles="0.02" meanMaxJamLengthInMeters="0.09" maxJamLengthInVehicles="1" maxJamLengthInMeters="5.00" jamLengthInVehiclesSum="5" jamLengthInMetersSum="23.10" meanHaltingDuration="6.00" maxHaltingDuration="6.00" haltingDurationSum="6.00" meanIntervalHaltingDuration="6.00" maxIntervalHaltingDuration="6.00" intervalHaltingDurationSum="6.00" startedHalts="1.00" meanVehicleNumber="0.05" maxVehicleNumber="1" />
   <interval begin="0.00" end="251.00" id="detSouthIn" sampledSeconds="15.76" nVehEntered="3" nVehLeft="3" nVehSeen="3" meanSpeed="2.28" meanTimeLoss="4.42" meanOccupancy="3.32" maxOccupancy="71.43" meanMaxJamLengthInVehicles="0.02" meanMaxJamLengthInMeters="0.10" maxJamLengthInVehicles="1" maxJamLengthInMeters="5.00" jamLengthInVehiclesSum="6" jamLengthInMetersSum="23.90" meanHaltingDuration="4.00" maxHaltingDuration="5.00" haltingDurationSum="8.00" meanIntervalHaltingDuration="4.00" maxIntervalHaltingDuration="5.00" intervalHaltingDurationSum="8.00" startedHalts="2.00" meanVehicleNumber="0.07" maxVehicleNumber="1" />
   <interval begin="0.00" end="251.00" id="detEastIn" sampledSeconds="32.09" nVehEntered="6" nVehLeft="6" nVehSeen="6" meanSpeed="2.24" meanTimeLoss="4.45" meanOccupancy="6.67" maxOccupancy="71.43" meanMaxJamLengthInVehicles="0.07" meanMaxJamLengthInMeters="0.27" maxJamLengthInVehicles="1" maxJamLengthInMeters="5.00" jamLengthInVehiclesSum="17" jamLengthInMetersSum="67.56" meanHaltingDuration="6.67" maxHaltingDuration="14.00" haltingDurationSum="20.00" meanIntervalHaltingDuration="6.67" maxIntervalHaltingDuration="14.00" intervalHaltingDurationSum="20.00" startedHalts="3.00" meanVehicleNumber="0.16" maxVehicleNumber="1" />
   <interval begin="0.00" end="251.00" id="detWestIn" sampledSeconds="63.28" nVehEntered="6" nVehLeft="6" nVehSeen="6" meanSpeed="1.14" meanTimeLoss="9.65" meanOccupancy="14.40" maxOccupancy="71.43" meanMaxJamLengthInVehicles="0.16" meanMaxJamLengthInMeters="0.70" maxJamLengthInVehicles="1" maxJamLengthInMeters="5.00" jamLengthInVehiclesSum="41" jamLengthInMetersSum="176.79" meanHaltingDuration="7.83" maxHaltingDuration="16.00" haltingDurationSum="47.00" meanIntervalHaltingDuration="7.83" maxIntervalHaltingDuration="16.00" intervalHaltingDurationSum="47.00" startedHalts="6.00" meanVehicleNumber="0.27" maxVehicleNumber="2" />
</detector>
