<?xml version="1.0" encoding="UTF-8"?>

<!-- generated on 11/21/19 22:49:52 by Eclipse SUMO Version 1.3.1
<configuration xmlns:xsi="http://www.w3.org/2001/XMLSchema-instance" xsi:noNamespaceSchemaLocation="http://sumo.dlr.de/xsd/sumoConfiguration.xsd">

    <input>
        <net-file value="data/cross.net.xml"/>
        <route-files value="data/cross_eval.rou.xml"/>
        <additional-files value="data/cross_eval.add.xml"/>
    </input>

    <time>
        <begin value="0"/>
    </time>

    <report>
        <verbose value="false"/>
        <no-step-log value="true"/>
    </report>

    <traci_server>
        <remote-port value="57554"/>
    </traci_server>

</configuration>
-->

<meandata xmlns:xsi="http://www.w3.org/2001/XMLSchema-instance" xsi:noNamespaceSchemaLocation="http://sumo.dlr.de/xsd/meandata_file.xsd">
    <interval begin="0.00" end="251.00" id="edgeData_0">
        <edge id="inEast" sampledSeconds="44.18" traveltime="40.13" overlapTraveltime="42.36" density="0.60" occupancy="0.29" waitingTime="0.00" speed="7.03" departed="2" arrived="0" entered="0" left="1" laneChangedFrom="0" laneChangedTo="0"/>
        <edge id="inNorth" sampledSeconds="191.09" traveltime="45.75" overlapTraveltime="48.60" density="2.60" occupancy="1.27" waitingTime="28.00" speed="6.13" departed="4" arrived="0" entered="0" left="4" laneChangedFrom="0" laneChangedTo="0"/>
        <edge id="inSouth" sampledSeconds="481.67" traveltime="42.92" overlapTraveltime="45.54" density="6.55" occupancy="3.20" waitingTime="47.00" speed="6.54" departed="12" arrived="0" entered="0" left="10" laneChangedFrom="0" laneChangedTo="0"/>
        <edge id="inWest" sampledSeconds="286.41" traveltime="37.37" overlapTraveltime="38.93" density="3.90" occupancy="1.92" waitingTime="16.00" speed="7.65" departed="8" arrived="0" entered="0" left="6" laneChangedFrom="0" laneChangedTo="0"/>
        <edge id="outEast" sampledSeconds="73.87" traveltime="28.25" overlapTraveltime="28.65" density="0.98" occupancy="0.48" waitingTime="0.00" speed="10.65" departed="0" arrived="2" entered="3" left="0" laneChangedFrom="0" laneChangedTo="0"/>
        <edge id="outNorth" sampledSeconds="206.73" traveltime="28.34" overlapTraveltime="28.77" density="2.75" occupancy="1.34" waitingTime="0.00" speed="10.60" departed="0" arrived="6" entered="8" left="0" laneChangedFrom="0" laneChangedTo="0"/>
        <edge id="outSouth" sampledSeconds="160.64" traveltime="26.53" overlapTraveltime="26.92" density="2.13" occupancy="1.04" waitingTime="0.00" speed="11.33" departed="0" arrived="6" entered="6" left="0" laneChangedFrom="0" laneChangedTo="0"/>
        <edge id="outWest" sampledSeconds="80.44" traveltime="26.47" overlapTraveltime="26.83" density="1.07" occupancy="0.52" waitingTime="0.00" speed="11.37" departed="0" arrived="3" entered="4" left="0" laneChangedFrom="0" laneChangedTo="0"/>
    </interval>
</meandata>
