<?xml version="1.0" encoding="UTF-8"?>

<!-- generated on 11/21/19 22:49:51 by Eclipse SUMO Version 1.3.1
<configuration xmlns:xsi="http://www.w3.org/2001/XMLSchema-instance" xsi:noNamespaceSchemaLocation="http://sumo.dlr.de/xsd/sumoConfiguration.xsd">

    <input>
        <net-file value="data/cross.net.xml"/>
        <route-files value="data/cross_0.rou.xml"/>
        <additional-files value="data/cross_0.add.xml"/>
    </input>

    <time>
        <begin value="0"/>
    </time>

    <report>
        <verbose value="false"/>
        <no-step-log value="true"/>
    </report>

    <traci_server>
        <remote-port value="57552"/>
    </traci_server>

</configuration>
-->

<meandata xmlns:xsi="http://www.w3.org/2001/XMLSchema-instance" xsi:noNamespaceSchemaLocation="http://sumo.dlr.de/xsd/meandata_file.xsd">
    <interval begin="0.00" end="202.00" id="edgeData_0">
        <edge id="inEast" sampledSeconds="167.58" traveltime="35.67" overlapTraveltime="37.67" density="2.83" occupancy="1.39" waitingTime="1.00" speed="7.91" departed="5" arrived="0" entered="0" left="4" laneChangedFrom="0" laneChangedTo="0"/>
        <edge id="inNorth" sampledSeconds="72.17" traveltime="35.14" overlapTraveltime="36.72" density="1.22" occupancy="0.60" waitingTime="1.00" speed="8.11" departed="2" arrived="0" entered="0" left="2" laneChangedFrom="0" laneChangedTo="0"/>
        <edge id="inSouth" sampledSeconds="115.05" traveltime="36.19" overlapTraveltime="39.02" density="1.95" occupancy="0.94" waitingTime="4.00" speed="7.63" departed="3" arrived="0" entered="0" left="3" laneChangedFrom="0" laneChangedTo="0"/>
        <edge id="inWest" sampledSeconds="105.79" traveltime="34.78" overlapTraveltime="35.88" density="1.79" occupancy="0.88" waitingTime="0.00" speed="8.30" departed="3" arrived="0" entered="0" left="3" laneChangedFrom="0" laneChangedTo="0"/>
        <edge id="outEast" sampledSeconds="82.73" traveltime="27.30" overlapTraveltime="27.70" density="1.37" occupancy="0.67" waitingTime="0.00" speed="11.01" departed="0" arrived="3" entered="3" left="0" laneChangedFrom="0" laneChangedTo="0"/>
        <edge id="outNorth" sampledSeconds="151.29" traveltime="28.85" overlapTraveltime="29.25" density="2.50" occupancy="1.21" waitingTime="0.00" speed="10.43" departed="0" arrived="5" entered="6" left="0" laneChangedFrom="0" laneChangedTo="0"/>
        <edge id="outSouth" sampledSeconds="44.96" traveltime="27.69" overlapTraveltime="28.13" density="0.74" occupancy="0.36" waitingTime="0.00" speed="10.84" departed="0" arrived="1" entered="2" left="0" laneChangedFrom="0" laneChangedTo="0"/>
        <edge id="outWest" sampledSeconds="25.29" traveltime="25.27" overlapTraveltime="25.68" density="0.42" occupancy="0.21" waitingTime="0.00" speed="11.88" departed="0" arrived="1" entered="1" left="0" laneChangedFrom="0" laneChangedTo="0"/>
    </interval>
</meandata>
