<?xml version="1.0" encoding="UTF-8"?>

<!-- generated on 11/21/19 09:53:37 by Eclipse SUMO Version 1.3.1
<configuration xmlns:xsi="http://www.w3.org/2001/XMLSchema-instance" xsi:noNamespaceSchemaLocation="http://sumo.dlr.de/xsd/sumoConfiguration.xsd">

    <input>
        <net-file value="data/cross.net.xml"/>
        <route-files value="data/cross_eval.rou.xml"/>
        <additional-files value="data/cross_eval.add.xml"/>
    </input>

    <time>
        <begin value="0"/>
    </time>

    <report>
        <verbose value="false"/>
        <no-step-log value="true"/>
    </report>

    <traci_server>
        <remote-port value="64003"/>
    </traci_server>

</configuration>
-->

<meandata xmlns:xsi="http://www.w3.org/2001/XMLSchema-instance" xsi:noNamespaceSchemaLocation="http://sumo.dlr.de/xsd/meandata_file.xsd">
    <interval begin="0.00" end="501.00" id="edgeData_0">
        <edge id="inEast" sampledSeconds="316.28" traveltime="41.09" overlapTraveltime="43.67" density="2.16" occupancy="1.05" waitingTime="29.00" speed="6.82" departed="8" arrived="0" entered="0" left="7" laneChangedFrom="0" laneChangedTo="0"/>
        <edge id="inNorth" sampledSeconds="258.51" traveltime="36.05" overlapTraveltime="37.57" density="1.76" occupancy="0.87" waitingTime="13.00" speed="7.93" departed="7" arrived="0" entered="0" left="7" laneChangedFrom="0" laneChangedTo="0"/>
        <edge id="inSouth" sampledSeconds="437.60" traveltime="42.22" overlapTraveltime="44.52" density="2.98" occupancy="1.46" waitingTime="57.00" speed="6.69" departed="10" arrived="0" entered="0" left="10" laneChangedFrom="0" laneChangedTo="0"/>
        <edge id="inWest" sampledSeconds="336.60" traveltime="36.61" overlapTraveltime="37.93" density="2.29" occupancy="1.13" waitingTime="17.00" speed="7.85" departed="10" arrived="0" entered="0" left="8" laneChangedFrom="0" laneChangedTo="0"/>
        <edge id="outEast" sampledSeconds="189.11" traveltime="26.71" overlapTraveltime="27.10" density="1.26" occupancy="0.61" waitingTime="0.00" speed="11.26" departed="0" arrived="7" entered="7" left="0" laneChangedFrom="0" laneChangedTo="0"/>
        <edge id="outNorth" sampledSeconds="161.84" traveltime="26.63" overlapTraveltime="27.02" density="1.08" occupancy="0.53" waitingTime="0.00" speed="11.29" departed="0" arrived="6" entered="6" left="0" laneChangedFrom="0" laneChangedTo="0"/>
        <edge id="outSouth" sampledSeconds="261.32" traveltime="25.87" overlapTraveltime="26.27" density="1.74" occupancy="0.85" waitingTime="0.00" speed="11.61" departed="0" arrived="10" entered="10" left="0" laneChangedFrom="0" laneChangedTo="0"/>
        <edge id="outWest" sampledSeconds="234.18" traveltime="25.75" overlapTraveltime="26.14" density="1.56" occupancy="0.76" waitingTime="0.00" speed="11.67" departed="0" arrived="9" entered="9" left="0" laneChangedFrom="0" laneChangedTo="0"/>
    </interval>
</meandata>
